<?xml version="1.0" encoding="UTF-8"?>

<!-- generated on 07/18/21 07:42:20 by Eclipse SUMO GUI Version 1.5.0
<configuration xmlns:xsi="http://www.w3.org/2001/XMLSchema-instance" xsi:noNamespaceSchemaLocation="http://sumo.dlr.de/xsd/sumoConfiguration.xsd">

    <input>
        <net-file value="D:\iUTS\VTD\MyEnv\Matsim-projects\matsim-codes\scenarios\seattle-formal-all\justAcase\SUMO\0.fmYiran\Network_check_Ped\Seattle02262021_veh_ped.net.xml"/>
        <route-files value="D:\iUTS\VTD\MyEnv\Matsim-projects\matsim-codes\scenarios\seattle-formal-all\justAcase\SUMO\0.fmYiran\Network_check_Ped\Bigger_Seattle_ped_rou.xml"/>
    </input>

    <output>
        <tripinfo-output value="D:\iUTS\VTD\MyEnv\Matsim-projects\matsim-codes\scenarios\seattle-formal-all\justAcase\SUMO\0.fmYiran\Network_check_Ped\tripinfo_Bigger_Seattle_ped.xml"/>
    </output>

    <time>
        <begin value="35000"/>
    </time>

    <gui_only>
        <quit-on-end value="false"/>
    </gui_only>

</configuration>
-->

<tripinfos xmlns:xsi="http://www.w3.org/2001/XMLSchema-instance" xsi:noNamespaceSchemaLocation="http://sumo.dlr.de/xsd/tripinfo_file.xsd">
</tripinfos>
