<?xml version="1.0" encoding="UTF-8"?>

<configuration xmlns:xsi="http://www.w3.org/2001/XMLSchema-instance" xsi:noNamespaceSchemaLocation="http://sumo.dlr.de/xsd/sumoConfiguration.xsd">

    <input>
        <net-file value="test_2.net.xml"/>
        <route-files value="test_2.rou.xml"/>
    </input>

    <output>
        <summary value="Summary.out.xml"/>
    </output>

    <time>
        <step-length value="0.1"/>
    </time>

</configuration>
