<?xml version="1.0" encoding="UTF-8"?>

<!-- generated on 07/26/21 13:36:44 by Eclipse SUMO GUI Version 1.5.0
<configuration xmlns:xsi="http://www.w3.org/2001/XMLSchema-instance" xsi:noNamespaceSchemaLocation="http://sumo.dlr.de/xsd/sumoConfiguration.xsd">

    <input>
        <net-file value="D:\iUTS\VTD\MyEnv\Matsim-projects\matsim-codes\scenarios\seattle-formal-all\justAcase\SUMO\Seattle02262021_veh_ped.net.xml"/>
        <route-files value="D:\iUTS\VTD\MyEnv\Matsim-projects\matsim-codes\scenarios\seattle-formal-all\justAcase\SUMO\1.matsim_ToSUMO.rou.xml"/>
    </input>

    <output>
        <tripinfo-output value="D:\iUTS\VTD\MyEnv\Matsim-projects\matsim-codes\scenarios\seattle-formal-all\justAcase\SUMO\1.tripinfo_Seattle_all.xml"/>
        <vehroute-output value="D:\iUTS\VTD\MyEnv\Matsim-projects\matsim-codes\scenarios\seattle-formal-all\justAcase\SUMO\1.vehicleRoute_Seattle_all.xml"/>
        <vehroute-output.exit-times value="true"/>
    </output>

    <time>
        <begin value="25000"/>
        <end value="50000"/>
    </time>

    <gui_only>
        <quit-on-end value="false"/>
    </gui_only>

</configuration>
-->

<tripinfos xmlns:xsi="http://www.w3.org/2001/XMLSchema-instance" xsi:noNamespaceSchemaLocation="http://sumo.dlr.de/xsd/tripinfo_file.xsd">
    <tripinfo id="3_1_1" depart="26682.00" departLane="402084477_0" departPos="5.10" departSpeed="0.00" departDelay="0.00" arrival="26686.00" arrivalLane="402084477_0" arrivalPos="22.59" arrivalSpeed="8.00" duration="4.00" routeLength="17.49" waitingTime="0.00" waitingCount="0" stopTime="0.00" timeLoss="3.25" rerouteNo="1" devices="vehroute_3_1_1 tripinfo_3_1_1 routing_3_1_1" vType="DEFAULT_VEHTYPE" speedFactor="0.94" vaporized=""/>
    <tripinfo id="3_1_2" depart="26696.00" departLane="15257850_0" departPos="5.10" departSpeed="0.00" departDelay="0.00" arrival="26710.00" arrivalLane="15257850_0" arrivalPos="221.49" arrivalSpeed="26.16" duration="14.00" routeLength="216.39" waitingTime="0.00" waitingCount="0" stopTime="0.00" timeLoss="5.97" rerouteNo="1" devices="vehroute_3_1_2 tripinfo_3_1_2 routing_3_1_2" vType="DEFAULT_VEHTYPE" speedFactor="1.01" vaporized=""/>
    <tripinfo id="3_1_3" depart="26729.00" departLane="158124201_0" departPos="5.10" departSpeed="0.00" departDelay="0.00" arrival="26743.00" arrivalLane="428230629_0" arrivalPos="156.70" arrivalSpeed="27.64" duration="14.00" routeLength="202.00" waitingTime="0.00" waitingCount="0" stopTime="0.00" timeLoss="6.71" rerouteNo="0" devices="vehroute_3_1_3 tripinfo_3_1_3 routing_3_1_3" vType="DEFAULT_VEHTYPE" speedFactor="1.08" vaporized=""/>
    <tripinfo id="6_1_0" depart="26736.00" departLane="306258895#0_0" departPos="5.10" departSpeed="0.00" departDelay="0.00" arrival="26754.00" arrivalLane="306258895#0_0" arrivalPos="294.07" arrivalSpeed="27.00" duration="18.00" routeLength="288.97" waitingTime="0.00" waitingCount="0" stopTime="0.00" timeLoss="7.40" rerouteNo="1" devices="vehroute_6_1_0 tripinfo_6_1_0 routing_6_1_0" vType="DEFAULT_VEHTYPE" speedFactor="1.03" vaporized=""/>
    <tripinfo id="3_1_4" depart="26797.00" departLane="56178980_0" departPos="5.10" departSpeed="0.00" departDelay="0.00" arrival="26826.00" arrivalLane="56178980_0" arrivalPos="432.45" arrivalSpeed="17.17" duration="29.00" routeLength="427.35" waitingTime="0.00" waitingCount="0" stopTime="0.00" timeLoss="5.47" rerouteNo="1" devices="vehroute_3_1_4 tripinfo_3_1_4 routing_3_1_4" vType="DEFAULT_VEHTYPE" speedFactor="0.83" vaporized=""/>
    <tripinfo id="6_1_1" depart="26841.00" departLane="4729558_0" departPos="5.10" departSpeed="0.00" departDelay="0.00" arrival="26852.00" arrivalLane="4729558_0" arrivalPos="102.52" arrivalSpeed="11.22" duration="11.00" routeLength="97.42" waitingTime="0.00" waitingCount="0" stopTime="0.00" timeLoss="2.59" rerouteNo="1" devices="vehroute_6_1_1 tripinfo_6_1_1 routing_6_1_1" vType="DEFAULT_VEHTYPE" speedFactor="1.05" vaporized=""/>
    <tripinfo id="3_1_0" depart="26659.00" departLane="38008151_0" departPos="5.10" departSpeed="0.00" departDelay="0.00" arrival="26864.00" arrivalLane="4848517_0" arrivalPos="215.43" arrivalSpeed="27.58" duration="205.00" routeLength="3128.68" waitingTime="38.00" waitingCount="2" stopTime="0.00" timeLoss="66.49" rerouteNo="1" devices="vehroute_3_1_0 tripinfo_3_1_0 routing_3_1_0" vType="DEFAULT_VEHTYPE" speedFactor="1.06" vaporized=""/>
    <tripinfo id="3_1_5" depart="26875.00" departLane="124272636_0" departPos="5.10" departSpeed="0.00" departDelay="0.00" arrival="26905.00" arrivalLane="124272636_0" arrivalPos="570.26" arrivalSpeed="22.84" duration="30.00" routeLength="565.16" waitingTime="0.00" waitingCount="0" stopTime="0.00" timeLoss="5.73" rerouteNo="1" devices="vehroute_3_1_5 tripinfo_3_1_5 routing_3_1_5" vType="DEFAULT_VEHTYPE" speedFactor="0.89" vaporized=""/>
    <tripinfo id="3_1_6" depart="26899.00" departLane="171121264_0" departPos="5.10" departSpeed="0.00" departDelay="0.00" arrival="26912.00" arrivalLane="486260018_0" arrivalPos="86.97" arrivalSpeed="23.89" duration="13.00" routeLength="165.31" waitingTime="0.00" waitingCount="0" stopTime="0.00" timeLoss="6.13" rerouteNo="1" devices="vehroute_3_1_6 tripinfo_3_1_6 routing_3_1_6" vType="DEFAULT_VEHTYPE" speedFactor="0.94" vaporized=""/>
    <tripinfo id="3_1_7" depart="26921.00" departLane="124045505_0" departPos="5.10" departSpeed="0.00" departDelay="0.00" arrival="26933.00" arrivalLane="124045505_0" arrivalPos="132.23" arrivalSpeed="22.75" duration="12.00" routeLength="127.13" waitingTime="0.00" waitingCount="0" stopTime="0.00" timeLoss="5.74" rerouteNo="1" devices="vehroute_3_1_7 tripinfo_3_1_7 routing_3_1_7" vType="DEFAULT_VEHTYPE" speedFactor="0.86" vaporized=""/>
    <tripinfo id="3_1_8" depart="26944.00" departLane="486260017#0_0" departPos="5.10" departSpeed="0.00" departDelay="0.00" arrival="26956.00" arrivalLane="486260017#0_0" arrivalPos="170.28" arrivalSpeed="26.61" duration="12.00" routeLength="165.18" waitingTime="0.00" waitingCount="0" stopTime="0.00" timeLoss="6.08" rerouteNo="1" devices="vehroute_3_1_8 tripinfo_3_1_8 routing_3_1_8" vType="DEFAULT_VEHTYPE" speedFactor="1.09" vaporized=""/>
    <tripinfo id="22_1_0" depart="26945.00" departLane="22760381#0_0" departPos="5.10" departSpeed="0.00" departDelay="0.00" arrival="26963.00" arrivalLane="22760381#0_0" arrivalPos="110.70" arrivalSpeed="6.74" duration="18.00" routeLength="105.60" waitingTime="0.00" waitingCount="0" stopTime="0.00" timeLoss="2.07" rerouteNo="1" devices="vehroute_22_1_0 tripinfo_22_1_0 routing_22_1_0" vType="DEFAULT_VEHTYPE" speedFactor="1.03" vaporized=""/>
    <tripinfo id="15_1_0" depart="26986.00" departLane="4712852_0" departPos="5.10" departSpeed="0.00" departDelay="0.00" arrival="26995.00" arrivalLane="4712852_0" arrivalPos="73.96" arrivalSpeed="15.54" duration="9.00" routeLength="68.86" waitingTime="0.00" waitingCount="0" stopTime="0.00" timeLoss="6.53" rerouteNo="1" devices="vehroute_15_1_0 tripinfo_15_1_0 routing_15_1_0" vType="DEFAULT_VEHTYPE" speedFactor="1.12" vaporized=""/>
    <tripinfo id="22_1_1" depart="26978.00" departLane="-445120466_0" departPos="5.10" departSpeed="0.00" departDelay="0.00" arrival="27002.00" arrivalLane="445120466_0" arrivalPos="16.74" arrivalSpeed="5.49" duration="24.00" routeLength="131.16" waitingTime="0.00" waitingCount="0" stopTime="0.00" timeLoss="8.63" rerouteNo="1" devices="vehroute_22_1_1 tripinfo_22_1_1 routing_22_1_1" vType="DEFAULT_VEHTYPE" speedFactor="1.05" vaporized=""/>
    <tripinfo id="3_1_9" depart="27003.00" departLane="5130429_0" departPos="5.10" departSpeed="0.00" departDelay="0.00" arrival="27014.00" arrivalLane="5130429_0" arrivalPos="111.52" arrivalSpeed="20.72" duration="11.00" routeLength="106.42" waitingTime="0.00" waitingCount="0" stopTime="0.00" timeLoss="6.25" rerouteNo="1" devices="vehroute_3_1_9 tripinfo_3_1_9 routing_3_1_9" vType="DEFAULT_VEHTYPE" speedFactor="0.99" vaporized=""/>
    <tripinfo id="22_1_2" depart="27043.00" departLane="365378964#2_0" departPos="3.99" departSpeed="0.00" departDelay="0.00" arrival="27044.00" arrivalLane="365378964#2_0" arrivalPos="3.99" arrivalSpeed="2.02" duration="1.00" routeLength="0.00" waitingTime="0.00" waitingCount="0" stopTime="0.00" timeLoss="0.61" rerouteNo="1" devices="vehroute_22_1_2 tripinfo_22_1_2 routing_22_1_2" vType="DEFAULT_VEHTYPE" speedFactor="0.93" vaporized=""/>
    <tripinfo id="15_1_1" depart="27044.00" departLane="15257849_0" departPos="5.10" departSpeed="0.00" departDelay="0.00" arrival="27059.00" arrivalLane="15257849_0" arrivalPos="215.85" arrivalSpeed="23.23" duration="15.00" routeLength="210.75" waitingTime="0.00" waitingCount="0" stopTime="0.00" timeLoss="5.80" rerouteNo="1" devices="vehroute_15_1_1 tripinfo_15_1_1 routing_15_1_1" vType="DEFAULT_VEHTYPE" speedFactor="0.88" vaporized=""/>
    <tripinfo id="15_1_2" depart="27060.00" departLane="428230613_0" departPos="5.10" departSpeed="0.00" departDelay="0.00" arrival="27067.00" arrivalLane="428230613_0" arrivalPos="52.08" arrivalSpeed="14.13" duration="7.00" routeLength="46.98" waitingTime="0.00" waitingCount="0" stopTime="0.00" timeLoss="4.78" rerouteNo="1" devices="vehroute_15_1_2 tripinfo_15_1_2 routing_15_1_2" vType="DEFAULT_VEHTYPE" speedFactor="0.94" vaporized=""/>
    <tripinfo id="22_1_3" depart="27074.00" departLane="359656862#1_0" departPos="5.10" departSpeed="0.00" departDelay="0.00" arrival="27195.00" arrivalLane="377324471#2_0" arrivalPos="34.51" arrivalSpeed="4.84" duration="121.00" routeLength="581.06" waitingTime="35.00" waitingCount="1" stopTime="0.00" timeLoss="54.37" rerouteNo="1" devices="vehroute_22_1_3 tripinfo_22_1_3 routing_22_1_3" vType="DEFAULT_VEHTYPE" speedFactor="0.94" vaporized=""/>
    <tripinfo id="15_1_3" depart="27246.00" departLane="428227919_0" departPos="5.10" departSpeed="0.00" departDelay="0.00" arrival="27248.00" arrivalLane="428227919_0" arrivalPos="10.27" arrivalSpeed="3.92" duration="2.00" routeLength="5.17" waitingTime="0.00" waitingCount="0" stopTime="0.00" timeLoss="1.75" rerouteNo="1" devices="vehroute_15_1_3 tripinfo_15_1_3 routing_15_1_3" vType="DEFAULT_VEHTYPE" speedFactor="1.16" vaporized=""/>
    <tripinfo id="21_1_0" depart="27305.00" departLane="306258895#0_0" departPos="5.10" departSpeed="0.00" departDelay="0.00" arrival="27322.00" arrivalLane="306258895#0_0" arrivalPos="294.07" arrivalSpeed="26.35" duration="17.00" routeLength="288.97" waitingTime="0.00" waitingCount="0" stopTime="0.00" timeLoss="6.26" rerouteNo="1" devices="vehroute_21_1_0 tripinfo_21_1_0 routing_21_1_0" vType="DEFAULT_VEHTYPE" speedFactor="1.02" vaporized=""/>
    <tripinfo id="15_1_4" depart="27321.00" departLane="5130429_0" departPos="5.10" departSpeed="0.00" departDelay="0.00" arrival="27331.00" arrivalLane="5130429_0" arrivalPos="111.52" arrivalSpeed="21.15" duration="10.00" routeLength="106.42" waitingTime="0.00" waitingCount="0" stopTime="0.00" timeLoss="5.49" rerouteNo="1" devices="vehroute_15_1_4 tripinfo_15_1_4 routing_15_1_4" vType="DEFAULT_VEHTYPE" speedFactor="0.98" vaporized=""/>
    <tripinfo id="22_1_4" depart="27319.00" departLane="-641651075_0" departPos="5.10" departSpeed="0.00" departDelay="0.00" arrival="27340.00" arrivalLane="-641651075_0" arrivalPos="105.24" arrivalSpeed="4.44" duration="21.00" routeLength="100.14" waitingTime="0.00" waitingCount="0" stopTime="0.00" timeLoss="2.57" rerouteNo="1" devices="vehroute_22_1_4 tripinfo_22_1_4 routing_22_1_4" vType="DEFAULT_VEHTYPE" speedFactor="1.01" vaporized=""/>
    <tripinfo id="22_1_5" depart="27361.00" departLane="174857073#8_0" departPos="5.10" departSpeed="0.00" departDelay="0.00" arrival="27369.00" arrivalLane="174857073#8_0" arrivalPos="42.27" arrivalSpeed="5.79" duration="8.00" routeLength="37.17" waitingTime="0.00" waitingCount="0" stopTime="0.00" timeLoss="1.67" rerouteNo="1" devices="vehroute_22_1_5 tripinfo_22_1_5 routing_22_1_5" vType="DEFAULT_VEHTYPE" speedFactor="0.89" vaporized=""/>
    <tripinfo id="21_1_1" depart="27410.00" departLane="4729558_0" departPos="5.10" departSpeed="0.00" departDelay="0.00" arrival="27424.00" arrivalLane="4729558_0" arrivalPos="102.52" arrivalSpeed="8.93" duration="14.00" routeLength="97.42" waitingTime="0.00" waitingCount="0" stopTime="0.00" timeLoss="2.88" rerouteNo="1" devices="vehroute_21_1_1 tripinfo_21_1_1 routing_21_1_1" vType="DEFAULT_VEHTYPE" speedFactor="0.83" vaporized=""/>
    <tripinfo id="22_1_6" depart="27439.00" departLane="124940792#0_0" departPos="3.95" departSpeed="0.00" departDelay="0.00" arrival="27440.00" arrivalLane="124940792#0_0" arrivalPos="3.95" arrivalSpeed="1.58" duration="1.00" routeLength="0.00" waitingTime="0.00" waitingCount="0" stopTime="0.00" timeLoss="0.92" rerouteNo="1" devices="vehroute_22_1_6 tripinfo_22_1_6 routing_22_1_6" vType="DEFAULT_VEHTYPE" speedFactor="0.87" vaporized=""/>
    <tripinfo id="22_1_7" depart="27509.00" departLane="96260967_0" departPos="5.10" departSpeed="0.00" departDelay="0.00" arrival="27517.00" arrivalLane="96260967_0" arrivalPos="67.97" arrivalSpeed="15.67" duration="8.00" routeLength="62.87" waitingTime="0.00" waitingCount="0" stopTime="0.00" timeLoss="4.58" rerouteNo="1" devices="vehroute_22_1_7 tripinfo_22_1_7 routing_22_1_7" vType="DEFAULT_VEHTYPE" speedFactor="0.92" vaporized=""/>
    <tripinfo id="22_1_8" depart="27547.00" departLane="96260966_0" departPos="5.10" departSpeed="0.00" departDelay="0.00" arrival="27568.00" arrivalLane="96260966_0" arrivalPos="323.56" arrivalSpeed="20.55" duration="21.00" routeLength="318.46" waitingTime="0.00" waitingCount="0" stopTime="0.00" timeLoss="5.64" rerouteNo="1" devices="vehroute_22_1_8 tripinfo_22_1_8 routing_22_1_8" vType="DEFAULT_VEHTYPE" speedFactor="0.95" vaporized=""/>
    <tripinfo id="22_1_10" depart="27704.00" departLane="15257846_0" departPos="5.10" departSpeed="0.00" departDelay="0.00" arrival="27719.00" arrivalLane="15257846_0" arrivalPos="234.14" arrivalSpeed="24.24" duration="15.00" routeLength="229.04" waitingTime="0.00" waitingCount="0" stopTime="0.00" timeLoss="5.74" rerouteNo="1" devices="vehroute_22_1_10 tripinfo_22_1_10 routing_22_1_10" vType="DEFAULT_VEHTYPE" speedFactor="0.93" vaporized=""/>
    <tripinfo id="22_1_11" depart="27719.00" departLane="-564742492_0" departPos="5.10" departSpeed="0.00" departDelay="0.00" arrival="27736.00" arrivalLane="415141362_0" arrivalPos="17.54" arrivalSpeed="6.54" duration="17.00" routeLength="128.64" waitingTime="0.00" waitingCount="0" stopTime="0.00" timeLoss="3.80" rerouteNo="1" devices="vehroute_22_1_11 tripinfo_22_1_11 routing_22_1_11" vType="DEFAULT_VEHTYPE" speedFactor="1.18" vaporized=""/>
    <tripinfo id="22_1_12" depart="27773.00" departLane="4910873_0" departPos="5.10" departSpeed="0.00" departDelay="0.00" arrival="27790.00" arrivalLane="4910873_0" arrivalPos="225.02" arrivalSpeed="17.55" duration="17.00" routeLength="219.92" waitingTime="0.00" waitingCount="0" stopTime="0.00" timeLoss="4.58" rerouteNo="1" devices="vehroute_22_1_12 tripinfo_22_1_12 routing_22_1_12" vType="DEFAULT_VEHTYPE" speedFactor="1.15" vaporized=""/>
    <tripinfo id="14_1_1" depart="27800.00" departLane="402084477_0" departPos="5.10" departSpeed="0.00" departDelay="0.00" arrival="27804.00" arrivalLane="402084477_0" arrivalPos="22.59" arrivalSpeed="8.90" duration="4.00" routeLength="17.49" waitingTime="0.00" waitingCount="0" stopTime="0.00" timeLoss="3.24" rerouteNo="1" devices="vehroute_14_1_1 tripinfo_14_1_1 routing_14_1_1" vType="DEFAULT_VEHTYPE" speedFactor="1.02" vaporized=""/>
    <tripinfo id="22_1_13" depart="27789.00" departLane="4749003_0" departPos="5.10" departSpeed="0.00" departDelay="0.00" arrival="27811.00" arrivalLane="4749003_0" arrivalPos="430.34" arrivalSpeed="30.36" duration="22.00" routeLength="425.24" waitingTime="0.00" waitingCount="0" stopTime="0.00" timeLoss="7.85" rerouteNo="1" devices="vehroute_22_1_13 tripinfo_22_1_13 routing_22_1_13" vType="DEFAULT_VEHTYPE" speedFactor="1.17" vaporized=""/>
    <tripinfo id="14_1_2" depart="27814.00" departLane="15257850_0" departPos="5.10" departSpeed="0.00" departDelay="0.00" arrival="27829.00" arrivalLane="15257850_0" arrivalPos="221.49" arrivalSpeed="24.90" duration="15.00" routeLength="216.39" waitingTime="0.00" waitingCount="0" stopTime="0.00" timeLoss="6.19" rerouteNo="1" devices="vehroute_14_1_2 tripinfo_14_1_2 routing_14_1_2" vType="DEFAULT_VEHTYPE" speedFactor="0.97" vaporized=""/>
    <tripinfo id="22_1_14" depart="27797.00" departLane="245265270#1_0" departPos="5.10" departSpeed="0.00" departDelay="0.00" arrival="27832.00" arrivalLane="245265270#1_0" arrivalPos="169.90" arrivalSpeed="4.96" duration="35.00" routeLength="164.80" waitingTime="0.00" waitingCount="0" stopTime="0.00" timeLoss="4.64" rerouteNo="1" devices="vehroute_22_1_14 tripinfo_22_1_14 routing_22_1_14" vType="DEFAULT_VEHTYPE" speedFactor="0.99" vaporized=""/>
    <tripinfo id="14_1_3" depart="27847.00" departLane="158124201_0" departPos="5.10" departSpeed="0.00" departDelay="0.00" arrival="27861.00" arrivalLane="428230629_0" arrivalPos="156.70" arrivalSpeed="26.94" duration="14.00" routeLength="202.00" waitingTime="0.00" waitingCount="0" stopTime="0.00" timeLoss="7.34" rerouteNo="0" devices="vehroute_14_1_3 tripinfo_14_1_3 routing_14_1_3" vType="DEFAULT_VEHTYPE" speedFactor="1.18" vaporized=""/>
    <tripinfo id="22_1_15" depart="27870.00" departLane="4749004_0" departPos="5.10" departSpeed="0.00" departDelay="0.00" arrival="27881.00" arrivalLane="4749004_0" arrivalPos="117.92" arrivalSpeed="20.35" duration="11.00" routeLength="112.82" waitingTime="0.00" waitingCount="0" stopTime="0.00" timeLoss="6.63" rerouteNo="1" devices="vehroute_22_1_15 tripinfo_22_1_15 routing_22_1_15" vType="DEFAULT_VEHTYPE" speedFactor="1.10" vaporized=""/>
    <tripinfo id="22_1_9" depart="27665.00" departLane="364249819_0" departPos="5.10" departSpeed="0.00" departDelay="0.00" arrival="27909.00" arrivalLane="428303127_0" arrivalPos="45.80" arrivalSpeed="24.60" duration="244.00" routeLength="2155.56" waitingTime="73.00" waitingCount="4" stopTime="0.00" timeLoss="115.00" rerouteNo="1" devices="vehroute_22_1_9 tripinfo_22_1_9 routing_22_1_9" vType="DEFAULT_VEHTYPE" speedFactor="1.13" vaporized=""/>
    <tripinfo id="14_1_4" depart="27915.00" departLane="56178980_0" departPos="5.10" departSpeed="0.00" departDelay="0.00" arrival="27942.00" arrivalLane="56178980_0" arrivalPos="432.45" arrivalSpeed="18.92" duration="27.00" routeLength="427.35" waitingTime="0.00" waitingCount="0" stopTime="0.00" timeLoss="5.24" rerouteNo="1" devices="vehroute_14_1_4 tripinfo_14_1_4 routing_14_1_4" vType="DEFAULT_VEHTYPE" speedFactor="0.90" vaporized=""/>
    <tripinfo id="14_1_5" depart="27993.00" departLane="124272636_0" departPos="5.10" departSpeed="0.00" departDelay="0.00" arrival="28022.00" arrivalLane="124272636_0" arrivalPos="570.26" arrivalSpeed="26.79" duration="29.00" routeLength="565.16" waitingTime="0.00" waitingCount="0" stopTime="0.00" timeLoss="7.76" rerouteNo="1" devices="vehroute_14_1_5 tripinfo_14_1_5 routing_14_1_5" vType="DEFAULT_VEHTYPE" speedFactor="1.03" vaporized=""/>
    <tripinfo id="14_1_6" depart="28017.00" departLane="171121264_0" departPos="5.10" departSpeed="0.00" departDelay="0.00" arrival="28030.00" arrivalLane="486260018_0" arrivalPos="86.97" arrivalSpeed="25.01" duration="13.00" routeLength="165.31" waitingTime="0.00" waitingCount="0" stopTime="0.00" timeLoss="5.88" rerouteNo="1" devices="vehroute_14_1_6 tripinfo_14_1_6 routing_14_1_6" vType="DEFAULT_VEHTYPE" speedFactor="0.96" vaporized=""/>
    <tripinfo id="14_1_0" depart="27777.00" departLane="38008151_0" departPos="5.10" departSpeed="0.00" departDelay="0.00" arrival="28036.00" arrivalLane="4848517_0" arrivalPos="215.43" arrivalSpeed="26.20" duration="259.00" routeLength="3128.68" waitingTime="80.00" waitingCount="3" stopTime="0.00" timeLoss="112.72" rerouteNo="1" devices="vehroute_14_1_0 tripinfo_14_1_0 routing_14_1_0" vType="DEFAULT_VEHTYPE" speedFactor="1.01" vaporized=""/>
    <tripinfo id="14_1_7" depart="28039.00" departLane="124045505_0" departPos="5.10" departSpeed="0.00" departDelay="0.00" arrival="28050.00" arrivalLane="124045505_0" arrivalPos="132.23" arrivalSpeed="22.30" duration="11.00" routeLength="127.13" waitingTime="0.00" waitingCount="0" stopTime="0.00" timeLoss="6.27" rerouteNo="1" devices="vehroute_14_1_7 tripinfo_14_1_7 routing_14_1_7" vType="DEFAULT_VEHTYPE" speedFactor="1.09" vaporized=""/>
    <tripinfo id="14_1_8" depart="28062.00" departLane="486260017#0_0" departPos="5.10" departSpeed="0.00" departDelay="0.00" arrival="28075.00" arrivalLane="486260017#0_0" arrivalPos="170.28" arrivalSpeed="25.17" duration="13.00" routeLength="165.18" waitingTime="0.00" waitingCount="0" stopTime="0.00" timeLoss="6.86" rerouteNo="1" devices="vehroute_14_1_8 tripinfo_14_1_8 routing_14_1_8" vType="DEFAULT_VEHTYPE" speedFactor="1.04" vaporized=""/>
    <tripinfo id="14_1_9" depart="28185.00" departLane="452336740_0" departPos="5.10" departSpeed="0.00" departDelay="0.00" arrival="28193.00" arrivalLane="452336740_0" arrivalPos="65.61" arrivalSpeed="15.12" duration="8.00" routeLength="60.51" waitingTime="0.00" waitingCount="0" stopTime="0.00" timeLoss="5.72" rerouteNo="1" devices="vehroute_14_1_9 tripinfo_14_1_9 routing_14_1_9" vType="DEFAULT_VEHTYPE" speedFactor="1.04" vaporized=""/>
    <tripinfo id="24_1_0" depart="28398.00" departLane="4749004_0" departPos="5.10" departSpeed="0.00" departDelay="0.00" arrival="28409.00" arrivalLane="4749004_0" arrivalPos="117.92" arrivalSpeed="19.48" duration="11.00" routeLength="112.82" waitingTime="0.00" waitingCount="0" stopTime="0.00" timeLoss="6.82" rerouteNo="1" devices="vehroute_24_1_0 tripinfo_24_1_0 routing_24_1_0" vType="DEFAULT_VEHTYPE" speedFactor="1.09" vaporized=""/>
    <tripinfo id="27_1_0" depart="28543.00" departLane="38008151_0" departPos="5.10" departSpeed="0.00" departDelay="0.00" arrival="28551.00" arrivalLane="431431055_0" arrivalPos="46.79" arrivalSpeed="16.75" duration="8.00" routeLength="65.66" waitingTime="0.00" waitingCount="0" stopTime="0.00" timeLoss="4.53" rerouteNo="0" devices="vehroute_27_1_0 tripinfo_27_1_0 routing_27_1_0" vType="DEFAULT_VEHTYPE" speedFactor="1.00" vaporized=""/>
    <tripinfo id="27_1_1" depart="28651.00" departLane="-564742531#1_0" departPos="5.10" departSpeed="0.00" departDelay="0.00" arrival="28674.00" arrivalLane="6458343#6_0" arrivalPos="70.11" arrivalSpeed="5.89" duration="23.00" routeLength="113.61" waitingTime="0.00" waitingCount="0" stopTime="0.00" timeLoss="3.59" rerouteNo="1" devices="vehroute_27_1_1 tripinfo_27_1_1 routing_27_1_1" vType="DEFAULT_VEHTYPE" speedFactor="0.90" vaporized=""/>
    <tripinfo id="11_1_0" depart="28737.00" departLane="4749004_0" departPos="5.10" departSpeed="0.00" departDelay="0.00" arrival="28748.00" arrivalLane="4749004_0" arrivalPos="117.92" arrivalSpeed="22.66" duration="11.00" routeLength="112.82" waitingTime="0.00" waitingCount="0" stopTime="0.00" timeLoss="5.42" rerouteNo="1" devices="vehroute_11_1_0 tripinfo_11_1_0 routing_11_1_0" vType="DEFAULT_VEHTYPE" speedFactor="0.88" vaporized=""/>
    <tripinfo id="27_2_0" depart="39666.00" departLane="484815669_0" departPos="1.15" departSpeed="0.00" departDelay="0.00" arrival="39667.00" arrivalLane="484815669_0" arrivalPos="1.15" arrivalSpeed="1.62" duration="1.00" routeLength="0.00" waitingTime="0.00" waitingCount="0" stopTime="0.00" timeLoss="0.66" rerouteNo="1" devices="vehroute_27_2_0 tripinfo_27_2_0 routing_27_2_0" vType="DEFAULT_VEHTYPE" speedFactor="0.85" vaporized=""/>
    <tripinfo id="27_2_1" depart="39810.00" departLane="245265270#0_0" departPos="5.10" departSpeed="0.00" departDelay="0.00" arrival="39827.00" arrivalLane="245265270#0_0" arrivalPos="70.58" arrivalSpeed="4.47" duration="17.00" routeLength="65.48" waitingTime="0.00" waitingCount="0" stopTime="0.00" timeLoss="2.32" rerouteNo="1" devices="vehroute_27_2_1 tripinfo_27_2_1 routing_27_2_1" vType="DEFAULT_VEHTYPE" speedFactor="0.85" vaporized=""/>
    <tripinfo id="27_2_2" depart="39832.00" departLane="4749003_0" departPos="5.10" departSpeed="0.00" departDelay="0.00" arrival="39854.00" arrivalLane="4749003_0" arrivalPos="430.34" arrivalSpeed="30.41" duration="22.00" routeLength="425.24" waitingTime="0.00" waitingCount="0" stopTime="0.00" timeLoss="7.67" rerouteNo="1" devices="vehroute_27_2_2 tripinfo_27_2_2 routing_27_2_2" vType="DEFAULT_VEHTYPE" speedFactor="1.17" vaporized=""/>
    <tripinfo id="27_2_3" depart="39869.00" departLane="500021865_0" departPos="5.10" departSpeed="0.00" departDelay="0.00" arrival="39875.00" arrivalLane="500021865_0" arrivalPos="49.18" arrivalSpeed="13.94" duration="6.00" routeLength="44.08" waitingTime="0.00" waitingCount="0" stopTime="0.00" timeLoss="2.87" rerouteNo="1" devices="vehroute_27_2_3 tripinfo_27_2_3 routing_27_2_3" vType="DEFAULT_VEHTYPE" speedFactor="1.02" vaporized=""/>
    <tripinfo id="24_2_0" depart="40426.00" departLane="4749006_0" departPos="5.10" departSpeed="0.00" departDelay="0.00" arrival="40456.00" arrivalLane="4749006_0" arrivalPos="461.10" arrivalSpeed="18.47" duration="30.00" routeLength="456.00" waitingTime="0.00" waitingCount="0" stopTime="0.00" timeLoss="6.11" rerouteNo="1" devices="vehroute_24_2_0 tripinfo_24_2_0 routing_24_2_0" vType="DEFAULT_VEHTYPE" speedFactor="1.10" vaporized=""/>
    <tripinfo id="15_2_0" depart="40497.00" departLane="4759238_0" departPos="5.10" departSpeed="0.00" departDelay="0.00" arrival="40515.00" arrivalLane="4759238_0" arrivalPos="300.51" arrivalSpeed="26.88" duration="18.00" routeLength="295.41" waitingTime="0.00" waitingCount="0" stopTime="0.00" timeLoss="6.37" rerouteNo="1" devices="vehroute_15_2_0 tripinfo_15_2_0 routing_15_2_0" vType="DEFAULT_VEHTYPE" speedFactor="1.00" vaporized=""/>
    <tripinfo id="15_2_1" depart="40575.00" departLane="15257843_0" departPos="5.10" departSpeed="0.00" departDelay="0.00" arrival="40600.00" arrivalLane="15257843_0" arrivalPos="471.90" arrivalSpeed="25.45" duration="25.00" routeLength="466.80" waitingTime="0.00" waitingCount="0" stopTime="0.00" timeLoss="7.28" rerouteNo="1" devices="vehroute_15_2_1 tripinfo_15_2_1 routing_15_2_1" vType="DEFAULT_VEHTYPE" speedFactor="1.00" vaporized=""/>
    <tripinfo id="15_2_2" depart="40587.00" departLane="15257844_0" departPos="5.10" departSpeed="0.00" departDelay="0.00" arrival="40602.00" arrivalLane="15257844_0" arrivalPos="216.25" arrivalSpeed="23.72" duration="15.00" routeLength="211.15" waitingTime="0.00" waitingCount="0" stopTime="0.00" timeLoss="5.99" rerouteNo="1" devices="vehroute_15_2_2 tripinfo_15_2_2 routing_15_2_2" vType="DEFAULT_VEHTYPE" speedFactor="0.90" vaporized=""/>
    <tripinfo id="15_2_3" depart="40608.00" departLane="124940411_0" departPos="5.10" departSpeed="0.00" departDelay="0.00" arrival="40623.00" arrivalLane="124940411_0" arrivalPos="225.18" arrivalSpeed="26.85" duration="15.00" routeLength="220.08" waitingTime="0.00" waitingCount="0" stopTime="0.00" timeLoss="6.41" rerouteNo="1" devices="vehroute_15_2_3 tripinfo_15_2_3 routing_15_2_3" vType="DEFAULT_VEHTYPE" speedFactor="1.02" vaporized=""/>
    <tripinfo id="19_2_0" depart="40606.00" departLane="306258895#0_0" departPos="5.10" departSpeed="0.00" departDelay="0.00" arrival="40624.00" arrivalLane="306258895#0_0" arrivalPos="294.07" arrivalSpeed="30.16" duration="18.00" routeLength="288.97" waitingTime="0.00" waitingCount="0" stopTime="0.00" timeLoss="7.88" rerouteNo="1" devices="vehroute_19_2_0 tripinfo_19_2_0 routing_19_2_0" vType="DEFAULT_VEHTYPE" speedFactor="1.14" vaporized=""/>
    <tripinfo id="15_2_4" depart="40639.00" departLane="306258894_0" departPos="5.10" departSpeed="0.00" departDelay="0.00" arrival="40647.00" arrivalLane="306258894_0" arrivalPos="70.40" arrivalSpeed="17.14" duration="8.00" routeLength="65.30" waitingTime="0.00" waitingCount="0" stopTime="0.00" timeLoss="5.08" rerouteNo="1" devices="vehroute_15_2_4 tripinfo_15_2_4 routing_15_2_4" vType="DEFAULT_VEHTYPE" speedFactor="0.97" vaporized=""/>
    <tripinfo id="19_2_1" depart="40711.00" departLane="4729558_0" departPos="5.10" departSpeed="0.00" departDelay="0.00" arrival="40722.00" arrivalLane="4729558_0" arrivalPos="102.52" arrivalSpeed="10.88" duration="11.00" routeLength="97.42" waitingTime="0.00" waitingCount="0" stopTime="0.00" timeLoss="2.82" rerouteNo="1" devices="vehroute_19_2_1 tripinfo_19_2_1 routing_19_2_1" vType="DEFAULT_VEHTYPE" speedFactor="1.08" vaporized=""/>
    <tripinfo id="22_2_0" depart="41994.00" departLane="4749006_0" departPos="5.10" departSpeed="0.00" departDelay="0.00" arrival="42022.00" arrivalLane="4749006_0" arrivalPos="461.10" arrivalSpeed="19.64" duration="28.00" routeLength="456.00" waitingTime="0.00" waitingCount="0" stopTime="0.00" timeLoss="5.17" rerouteNo="1" devices="vehroute_22_2_0 tripinfo_22_2_0 routing_22_2_0" vType="DEFAULT_VEHTYPE" speedFactor="1.12" vaporized=""/>
    <tripinfo id="22_2_1" depart="42092.00" departLane="4712852_0" departPos="5.10" departSpeed="0.00" departDelay="0.00" arrival="42101.00" arrivalLane="4712852_0" arrivalPos="73.96" arrivalSpeed="16.65" duration="9.00" routeLength="68.86" waitingTime="0.00" waitingCount="0" stopTime="0.00" timeLoss="5.93" rerouteNo="1" devices="vehroute_22_2_1 tripinfo_22_2_1 routing_22_2_1" vType="DEFAULT_VEHTYPE" speedFactor="1.02" vaporized=""/>
    <tripinfo id="22_2_2" depart="42150.00" departLane="15257849_0" departPos="5.10" departSpeed="0.00" departDelay="0.00" arrival="42165.00" arrivalLane="15257849_0" arrivalPos="215.85" arrivalSpeed="25.43" duration="15.00" routeLength="210.75" waitingTime="0.00" waitingCount="0" stopTime="0.00" timeLoss="6.30" rerouteNo="1" devices="vehroute_22_2_2 tripinfo_22_2_2 routing_22_2_2" vType="DEFAULT_VEHTYPE" speedFactor="0.99" vaporized=""/>