<?xml version="1.0" encoding="UTF-8"?>

<!-- generated on 07/20/21 16:24:27 by Eclipse SUMO GUI Version 1.5.0
<configuration xmlns:xsi="http://www.w3.org/2001/XMLSchema-instance" xsi:noNamespaceSchemaLocation="http://sumo.dlr.de/xsd/sumoConfiguration.xsd">

    <input>
        <net-file value="D:\iUTS\VTD\MyEnv\Matsim-projects\matsim-codes\scenarios\seattle-formal-all\justAcase\SUMO\Seattle02262021_veh_ped.net.xml"/>
        <route-files value="D:\iUTS\VTD\MyEnv\Matsim-projects\matsim-codes\scenarios\seattle-formal-all\justAcase\SUMO\matsim_ToSUMO.rou.xml"/>
    </input>

    <output>
        <tripinfo-output value="D:\iUTS\VTD\MyEnv\Matsim-projects\matsim-codes\scenarios\seattle-formal-all\justAcase\SUMO\tripinfo_Seattle_all.xml"/>
        <vehroute-output value="D:\iUTS\VTD\MyEnv\Matsim-projects\matsim-codes\scenarios\seattle-formal-all\justAcase\SUMO\vehicleRoute_Seattle_all.xml"/>
        <vehroute-output.exit-times value="true"/>
    </output>

    <time>
        <begin value="25000"/>
        <end value="50000"/>
    </time>

    <gui_only>
        <quit-on-end value="false"/>
    </gui_only>

</configuration>
-->

<tripinfos xmlns:xsi="http://www.w3.org/2001/XMLSchema-instance" xsi:noNamespaceSchemaLocation="http://sumo.dlr.de/xsd/tripinfo_file.xsd">
    <tripinfo id="23_1_0" depart="25242.00" departLane="gneE507_1" departPos="5.10" departSpeed="0.00" departDelay="0.00" arrival="25247.00" arrivalLane="gneE507_1" arrivalPos="29.71" arrivalSpeed="10.31" duration="5.00" routeLength="24.61" waitingTime="0.00" waitingCount="0" stopTime="0.00" timeLoss="2.51" rerouteNo="1" devices="vehroute_23_1_0 tripinfo_23_1_0 routing_23_1_0" vType="DEFAULT_VEHTYPE" speedFactor="0.94" vaporized=""/>
    <tripinfo id="8_1_0" depart="25242.00" departLane="4794449#2_1" departPos="5.10" departSpeed="0.00" departDelay="0.00" arrival="25247.00" arrivalLane="4794449#2_1" arrivalPos="27.23" arrivalSpeed="9.45" duration="5.00" routeLength="22.13" waitingTime="0.00" waitingCount="0" stopTime="0.00" timeLoss="4.03" rerouteNo="1" devices="vehroute_8_1_0 tripinfo_8_1_0 routing_8_1_0" vType="DEFAULT_VEHTYPE" speedFactor="1.01" vaporized=""/>
    <tripinfo id="8_1_1" depart="25247.00" departLane="332200723_0" departPos="0.10" departSpeed="0.00" departDelay="0.00" arrival="25248.00" arrivalLane="332200723_0" arrivalPos="0.10" arrivalSpeed="2.39" duration="1.00" routeLength="0.00" waitingTime="0.00" waitingCount="0" stopTime="0.00" timeLoss="0.79" rerouteNo="1" devices="vehroute_8_1_1 tripinfo_8_1_1 routing_8_1_1" vType="DEFAULT_VEHTYPE" speedFactor="1.03" vaporized=""/>
    <tripinfo id="20_1_0" depart="25237.00" departLane="8071578#3_0" departPos="5.10" departSpeed="0.00" departDelay="0.00" arrival="25251.00" arrivalLane="8071578#3_0" arrivalPos="87.20" arrivalSpeed="6.98" duration="14.00" routeLength="82.10" waitingTime="0.00" waitingCount="0" stopTime="0.00" timeLoss="2.02" rerouteNo="1" devices="vehroute_20_1_0 tripinfo_20_1_0 routing_20_1_0" vType="DEFAULT_VEHTYPE" speedFactor="1.06" vaporized=""/>
    <tripinfo id="24_1_0" depart="25246.00" departLane="617436202#0_1" departPos="5.10" departSpeed="0.00" departDelay="0.00" arrival="25257.00" arrivalLane="617436202#0_1" arrivalPos="111.44" arrivalSpeed="13.84" duration="11.00" routeLength="106.34" waitingTime="0.00" waitingCount="0" stopTime="0.00" timeLoss="3.63" rerouteNo="1" devices="vehroute_24_1_0 tripinfo_24_1_0 routing_24_1_0" vType="DEFAULT_VEHTYPE" speedFactor="1.08" vaporized=""/>
    <tripinfo id="24_1_1" depart="25258.00" departLane="621378235#1_1" departPos="5.10" departSpeed="0.00" departDelay="0.00" arrival="25264.00" arrivalLane="621378235#1_1" arrivalPos="37.16" arrivalSpeed="12.64" duration="6.00" routeLength="32.06" waitingTime="0.00" waitingCount="0" stopTime="0.00" timeLoss="2.94" rerouteNo="1" devices="vehroute_24_1_1 tripinfo_24_1_1 routing_24_1_1" vType="DEFAULT_VEHTYPE" speedFactor="1.05" vaporized=""/>
    <tripinfo id="8_1_2" depart="25257.00" departLane="490208227#0_1" departPos="5.10" departSpeed="0.00" departDelay="0.00" arrival="25273.00" arrivalLane="45370338#0_1" arrivalPos="57.26" arrivalSpeed="8.59" duration="16.00" routeLength="98.59" waitingTime="0.00" waitingCount="0" stopTime="0.00" timeLoss="4.31" rerouteNo="0" devices="vehroute_8_1_2 tripinfo_8_1_2 routing_8_1_2" vType="DEFAULT_VEHTYPE" speedFactor="0.83" vaporized=""/>
    <tripinfo id="23_1_1" depart="25275.00" departLane="124272619_0" departPos="5.10" departSpeed="0.00" departDelay="0.00" arrival="25282.00" arrivalLane="124272619_0" arrivalPos="46.02" arrivalSpeed="13.83" duration="7.00" routeLength="40.92" waitingTime="0.00" waitingCount="0" stopTime="0.00" timeLoss="4.85" rerouteNo="1" devices="vehroute_23_1_1 tripinfo_23_1_1 routing_23_1_1" vType="DEFAULT_VEHTYPE" speedFactor="0.86" vaporized=""/>
    <tripinfo id="8_1_3" depart="25273.00" departLane="6464775#0_1" departPos="5.10" departSpeed="0.00" departDelay="0.00" arrival="25286.00" arrivalLane="6464775#0_1" arrivalPos="111.77" arrivalSpeed="10.11" duration="13.00" routeLength="106.67" waitingTime="0.00" waitingCount="0" stopTime="0.00" timeLoss="2.51" rerouteNo="1" devices="vehroute_8_1_3 tripinfo_8_1_3 routing_8_1_3" vType="DEFAULT_VEHTYPE" speedFactor="0.94" vaporized=""/>
    <tripinfo id="24_1_3" depart="25315.00" departLane="421777796#6_1" departPos="5.10" departSpeed="0.00" departDelay="0.00" arrival="25320.00" arrivalLane="421777796#6_1" arrivalPos="32.56" arrivalSpeed="10.62" duration="5.00" routeLength="27.46" waitingTime="0.00" waitingCount="0" stopTime="0.00" timeLoss="2.84" rerouteNo="1" devices="vehroute_24_1_3 tripinfo_24_1_3 routing_24_1_3" vType="DEFAULT_VEHTYPE" speedFactor="1.09" vaporized=""/>
    <tripinfo id="24_1_4" depart="25329.00" departLane="8111068#1_1" departPos="5.10" departSpeed="0.00" departDelay="0.00" arrival="25339.00" arrivalLane="8111068#1_1" arrivalPos="83.16" arrivalSpeed="12.91" duration="10.00" routeLength="78.06" waitingTime="0.00" waitingCount="0" stopTime="0.00" timeLoss="3.41" rerouteNo="1" devices="vehroute_24_1_4 tripinfo_24_1_4 routing_24_1_4" vType="DEFAULT_VEHTYPE" speedFactor="1.03" vaporized=""/>
    <tripinfo id="20_1_1" depart="25345.00" departLane="124272619_0" departPos="5.10" departSpeed="0.00" departDelay="0.00" arrival="25351.00" arrivalLane="124272619_0" arrivalPos="46.02" arrivalSpeed="12.49" duration="6.00" routeLength="40.92" waitingTime="0.00" waitingCount="0" stopTime="0.00" timeLoss="4.55" rerouteNo="1" devices="vehroute_20_1_1 tripinfo_20_1_1 routing_20_1_1" vType="DEFAULT_VEHTYPE" speedFactor="1.12" vaporized=""/>
    <tripinfo id="8_1_4" depart="25349.00" departLane="51969309_0" departPos="5.10" departSpeed="0.00" departDelay="0.00" arrival="25356.00" arrivalLane="51969309_0" arrivalPos="29.97" arrivalSpeed="4.98" duration="7.00" routeLength="24.87" waitingTime="0.00" waitingCount="0" stopTime="0.00" timeLoss="1.62" rerouteNo="1" devices="vehroute_8_1_4 tripinfo_8_1_4 routing_8_1_4" vType="DEFAULT_VEHTYPE" speedFactor="0.99" vaporized=""/>
    <tripinfo id="24_1_5" depart="25339.00" departLane="97129777.53_0" departPos="5.10" departSpeed="0.00" departDelay="0.00" arrival="25364.00" arrivalLane="97129777.53_0" arrivalPos="431.91" arrivalSpeed="22.27" duration="25.00" routeLength="426.81" waitingTime="0.00" waitingCount="0" stopTime="0.00" timeLoss="6.12" rerouteNo="1" devices="vehroute_24_1_5 tripinfo_24_1_5 routing_24_1_5" vType="DEFAULT_VEHTYPE" speedFactor="1.05" vaporized=""/>
    <tripinfo id="20_1_2" depart="25366.00" departLane="428303127_0" departPos="5.10" departSpeed="0.00" departDelay="0.00" arrival="25373.00" arrivalLane="428303127_0" arrivalPos="45.80" arrivalSpeed="12.93" duration="7.00" routeLength="40.70" waitingTime="0.00" waitingCount="0" stopTime="0.00" timeLoss="4.52" rerouteNo="1" devices="vehroute_20_1_2 tripinfo_20_1_2 routing_20_1_2" vType="DEFAULT_VEHTYPE" speedFactor="0.93" vaporized=""/>
    <tripinfo id="8_1_5" depart="25371.00" departLane="6475815#5_1" departPos="5.10" departSpeed="0.00" departDelay="0.00" arrival="25375.00" arrivalLane="6475815#5_1" arrivalPos="21.68" arrivalSpeed="7.71" duration="4.00" routeLength="16.58" waitingTime="0.00" waitingCount="0" stopTime="0.00" timeLoss="2.38" rerouteNo="1" devices="vehroute_8_1_5 tripinfo_8_1_5 routing_8_1_5" vType="DEFAULT_VEHTYPE" speedFactor="0.88" vaporized=""/>
    <tripinfo id="24_1_2" depart="25272.00" departLane="6450457#0_1" departPos="5.10" departSpeed="0.00" departDelay="0.00" arrival="25376.00" arrivalLane="gneE494_1" arrivalPos="31.99" arrivalSpeed="11.07" duration="104.00" routeLength="608.04" waitingTime="41.00" waitingCount="1" stopTime="0.00" timeLoss="52.04" rerouteNo="1" devices="vehroute_24_1_2 tripinfo_24_1_2 routing_24_1_2" vType="DEFAULT_VEHTYPE" speedFactor="0.89" vaporized=""/>
    <tripinfo id="20_1_3" depart="25391.00" departLane="38008155_0" departPos="5.10" departSpeed="0.00" departDelay="0.00" arrival="25418.00" arrivalLane="4749003_0" arrivalPos="430.34" arrivalSpeed="25.09" duration="27.00" routeLength="503.14" waitingTime="0.00" waitingCount="0" stopTime="0.00" timeLoss="6.40" rerouteNo="0" devices="vehroute_20_1_3 tripinfo_20_1_3 routing_20_1_3" vType="DEFAULT_VEHTYPE" speedFactor="0.94" vaporized=""/>
    <tripinfo id="12_1_0" depart="25451.00" departLane="4749006_0" departPos="5.10" departSpeed="0.00" departDelay="0.00" arrival="25484.00" arrivalLane="4749006_0" arrivalPos="461.10" arrivalSpeed="15.75" duration="33.00" routeLength="456.00" waitingTime="0.00" waitingCount="0" stopTime="0.00" timeLoss="4.91" rerouteNo="1" devices="vehroute_12_1_0 tripinfo_12_1_0 routing_12_1_0" vType="DEFAULT_VEHTYPE" speedFactor="0.94" vaporized=""/>
    <tripinfo id="12_1_1" depart="25477.00" departLane="4910876_0" departPos="5.10" departSpeed="0.00" departDelay="0.00" arrival="25490.00" arrivalLane="4910876_0" arrivalPos="163.96" arrivalSpeed="24.08" duration="13.00" routeLength="158.86" waitingTime="0.00" waitingCount="0" stopTime="0.00" timeLoss="6.66" rerouteNo="1" devices="vehroute_12_1_1 tripinfo_12_1_1 routing_12_1_1" vType="DEFAULT_VEHTYPE" speedFactor="1.16" vaporized=""/>
    <tripinfo id="28_1_0" depart="25489.00" departLane="-174388265#1_0" departPos="5.10" departSpeed="0.00" departDelay="0.00" arrival="25513.00" arrivalLane="-174388265#1_0" arrivalPos="141.65" arrivalSpeed="6.54" duration="24.00" routeLength="136.55" waitingTime="0.00" waitingCount="0" stopTime="0.00" timeLoss="3.46" rerouteNo="1" devices="vehroute_28_1_0 tripinfo_28_1_0 routing_28_1_0" vType="DEFAULT_VEHTYPE" speedFactor="1.02" vaporized=""/>
    <tripinfo id="28_1_1" depart="25499.00" departLane="-174393608#1_0" departPos="5.10" departSpeed="0.00" departDelay="0.00" arrival="25524.00" arrivalLane="-174393608#1_0" arrivalPos="143.31" arrivalSpeed="6.16" duration="25.00" routeLength="138.21" waitingTime="0.00" waitingCount="0" stopTime="0.00" timeLoss="3.72" rerouteNo="1" devices="vehroute_28_1_1 tripinfo_28_1_1 routing_28_1_1" vType="DEFAULT_VEHTYPE" speedFactor="1.01" vaporized=""/>
    <tripinfo id="5_1_0" depart="25526.00" departLane="6433848#2_1" departPos="5.10" departSpeed="0.00" departDelay="0.00" arrival="25533.00" arrivalLane="6433848#2_1" arrivalPos="40.11" arrivalSpeed="10.77" duration="7.00" routeLength="35.01" waitingTime="0.00" waitingCount="0" stopTime="0.00" timeLoss="2.93" rerouteNo="1" devices="vehroute_5_1_0 tripinfo_5_1_0 routing_5_1_0" vType="DEFAULT_VEHTYPE" speedFactor="0.83" vaporized=""/>
    <tripinfo id="12_1_2" depart="25517.00" departLane="4759238_0" departPos="5.10" departSpeed="0.00" departDelay="0.00" arrival="25535.00" arrivalLane="4759238_0" arrivalPos="300.51" arrivalSpeed="25.00" duration="18.00" routeLength="295.41" waitingTime="0.00" waitingCount="0" stopTime="0.00" timeLoss="5.94" rerouteNo="1" devices="vehroute_12_1_2 tripinfo_12_1_2 routing_12_1_2" vType="DEFAULT_VEHTYPE" speedFactor="0.98" vaporized=""/>
    <tripinfo id="28_1_2" depart="25533.00" departLane="58560464#0_0" departPos="5.10" departSpeed="0.00" departDelay="0.00" arrival="25538.00" arrivalLane="58560464#0_0" arrivalPos="23.80" arrivalSpeed="9.36" duration="5.00" routeLength="18.70" waitingTime="0.00" waitingCount="0" stopTime="0.00" timeLoss="3.61" rerouteNo="1" devices="vehroute_28_1_2 tripinfo_28_1_2 routing_28_1_2" vType="DEFAULT_VEHTYPE" speedFactor="0.87" vaporized=""/>
    <tripinfo id="14_1_0" depart="25522.00" departLane="38008151_0" departPos="5.10" departSpeed="0.00" departDelay="0.00" arrival="25540.00" arrivalLane="38008152_2" arrivalPos="40.89" arrivalSpeed="23.62" duration="18.00" routeLength="283.78" waitingTime="0.00" waitingCount="0" stopTime="0.00" timeLoss="5.28" rerouteNo="1" devices="vehroute_14_1_0 tripinfo_14_1_0 routing_14_1_0" vType="DEFAULT_VEHTYPE" speedFactor="0.89" vaporized=""/>
    <tripinfo id="5_1_1" depart="25549.00" departLane="158612540#1_0" departPos="5.10" departSpeed="0.00" departDelay="0.00" arrival="25560.00" arrivalLane="158612540#1_0" arrivalPos="61.16" arrivalSpeed="6.10" duration="11.00" routeLength="56.06" waitingTime="0.00" waitingCount="0" stopTime="0.00" timeLoss="1.89" rerouteNo="1" devices="vehroute_5_1_1 tripinfo_5_1_1 routing_5_1_1" vType="DEFAULT_VEHTYPE" speedFactor="0.92" vaporized=""/>
    <tripinfo id="12_1_3" depart="25557.00" departLane="5130429_0" departPos="5.10" departSpeed="0.00" departDelay="0.00" arrival="25567.00" arrivalLane="5130429_0" arrivalPos="111.52" arrivalSpeed="20.65" duration="10.00" routeLength="106.42" waitingTime="0.00" waitingCount="0" stopTime="0.00" timeLoss="6.36" rerouteNo="1" devices="vehroute_12_1_3 tripinfo_12_1_3 routing_12_1_3" vType="DEFAULT_VEHTYPE" speedFactor="1.13" vaporized=""/>
    <tripinfo id="14_1_1" depart="25556.00" departLane="97129768#1_0" departPos="5.10" departSpeed="0.00" departDelay="0.00" arrival="25582.00" arrivalLane="97129768#1_0" arrivalPos="464.92" arrivalSpeed="25.42" duration="26.00" routeLength="459.82" waitingTime="0.00" waitingCount="0" stopTime="0.00" timeLoss="6.99" rerouteNo="1" devices="vehroute_14_1_1 tripinfo_14_1_1 routing_14_1_1" vType="DEFAULT_VEHTYPE" speedFactor="0.95" vaporized=""/>
    <tripinfo id="14_1_3" depart="25579.00" departLane="486260018_0" departPos="5.10" departSpeed="0.00" departDelay="0.00" arrival="25588.00" arrivalLane="486260018_0" arrivalPos="86.97" arrivalSpeed="16.44" duration="9.00" routeLength="81.87" waitingTime="0.00" waitingCount="0" stopTime="0.00" timeLoss="6.38" rerouteNo="1" devices="vehroute_14_1_3 tripinfo_14_1_3 routing_14_1_3" vType="DEFAULT_VEHTYPE" speedFactor="1.18" vaporized=""/>
    <tripinfo id="14_1_2" depart="25572.00" departLane="124272636_0" departPos="5.10" departSpeed="0.00" departDelay="0.00" arrival="25601.00" arrivalLane="124272636_0" arrivalPos="570.26" arrivalSpeed="24.56" duration="29.00" routeLength="565.16" waitingTime="0.00" waitingCount="0" stopTime="0.00" timeLoss="6.14" rerouteNo="1" devices="vehroute_14_1_2 tripinfo_14_1_2 routing_14_1_2" vType="DEFAULT_VEHTYPE" speedFactor="0.93" vaporized=""/>
    <tripinfo id="28_1_3" depart="25609.00" departLane="428303127_0" departPos="5.10" departSpeed="0.00" departDelay="0.00" arrival="25615.00" arrivalLane="428303127_0" arrivalPos="45.80" arrivalSpeed="12.24" duration="6.00" routeLength="40.70" waitingTime="0.00" waitingCount="0" stopTime="0.00" timeLoss="4.30" rerouteNo="1" devices="vehroute_28_1_3 tripinfo_28_1_3 routing_28_1_3" vType="DEFAULT_VEHTYPE" speedFactor="1.15" vaporized=""/>
    <tripinfo id="28_1_4" depart="25634.00" departLane="38008155_0" departPos="5.10" departSpeed="0.00" departDelay="0.00" arrival="25640.00" arrivalLane="38008155_0" arrivalPos="38.91" arrivalSpeed="12.24" duration="6.00" routeLength="33.81" waitingTime="0.00" waitingCount="0" stopTime="0.00" timeLoss="4.45" rerouteNo="1" devices="vehroute_28_1_4 tripinfo_28_1_4 routing_28_1_4" vType="DEFAULT_VEHTYPE" speedFactor="1.01" vaporized=""/>
    <tripinfo id="28_1_5" depart="25640.00" departLane="500021865_0" departPos="5.10" departSpeed="0.00" departDelay="0.00" arrival="25647.00" arrivalLane="500021865_0" arrivalPos="49.18" arrivalSpeed="14.10" duration="7.00" routeLength="44.08" waitingTime="0.00" waitingCount="0" stopTime="0.00" timeLoss="3.84" rerouteNo="1" devices="vehroute_28_1_5 tripinfo_28_1_5 routing_28_1_5" vType="DEFAULT_VEHTYPE" speedFactor="1.17" vaporized=""/>
    <tripinfo id="10_1_0" depart="25667.00" departLane="4729558_0" departPos="5.10" departSpeed="0.00" departDelay="0.00" arrival="25679.00" arrivalLane="4729558_0" arrivalPos="102.52" arrivalSpeed="10.19" duration="12.00" routeLength="97.42" waitingTime="0.00" waitingCount="0" stopTime="0.00" timeLoss="2.55" rerouteNo="1" devices="vehroute_10_1_0 tripinfo_10_1_0 routing_10_1_0" vType="DEFAULT_VEHTYPE" speedFactor="0.99" vaporized=""/>
    <tripinfo id="10_1_1" depart="25717.00" departLane="171121248_0" departPos="5.10" departSpeed="0.00" departDelay="0.00" arrival="25734.00" arrivalLane="171121248_0" arrivalPos="275.71" arrivalSpeed="21.90" duration="17.00" routeLength="270.61" waitingTime="0.00" waitingCount="0" stopTime="0.00" timeLoss="4.66" rerouteNo="1" devices="vehroute_10_1_1 tripinfo_10_1_1 routing_10_1_1" vType="DEFAULT_VEHTYPE" speedFactor="1.02" vaporized=""/>
    <tripinfo id="25_1_0" depart="25745.00" departLane="58560464#0_0" departPos="5.10" departSpeed="0.00" departDelay="0.00" arrival="25749.00" arrivalLane="58560464#0_0" arrivalPos="23.80" arrivalSpeed="8.63" duration="4.00" routeLength="18.70" waitingTime="0.00" waitingCount="0" stopTime="0.00" timeLoss="2.98" rerouteNo="1" devices="vehroute_25_1_0 tripinfo_25_1_0 routing_25_1_0" vType="DEFAULT_VEHTYPE" speedFactor="0.97" vaporized=""/>
    <tripinfo id="10_1_2" depart="25751.00" departLane="5130429_0" departPos="5.10" departSpeed="0.00" departDelay="0.00" arrival="25761.00" arrivalLane="5130429_0" arrivalPos="111.52" arrivalSpeed="18.82" duration="10.00" routeLength="106.42" waitingTime="0.00" waitingCount="0" stopTime="0.00" timeLoss="6.54" rerouteNo="1" devices="vehroute_10_1_2 tripinfo_10_1_2 routing_10_1_2" vType="DEFAULT_VEHTYPE" speedFactor="1.18" vaporized=""/>
    <tripinfo id="9_1_0" depart="25774.00" departLane="672365867_0" departPos="0.20" departSpeed="0.00" departDelay="0.00" arrival="25775.00" arrivalLane="672365867_0" arrivalPos="0.20" arrivalSpeed="2.25" duration="1.00" routeLength="0.00" waitingTime="0.00" waitingCount="0" stopTime="0.00" timeLoss="0.91" rerouteNo="1" devices="vehroute_9_1_0 tripinfo_9_1_0 routing_9_1_0" vType="DEFAULT_VEHTYPE" speedFactor="1.10" vaporized=""/>
    <tripinfo id="25_1_1" depart="25846.00" departLane="38008155_0" departPos="5.10" departSpeed="0.00" departDelay="0.00" arrival="25851.00" arrivalLane="38008155_0" arrivalPos="38.91" arrivalSpeed="11.67" duration="5.00" routeLength="33.81" waitingTime="0.00" waitingCount="0" stopTime="0.00" timeLoss="3.48" rerouteNo="1" devices="vehroute_25_1_1 tripinfo_25_1_1 routing_25_1_1" vType="DEFAULT_VEHTYPE" speedFactor="0.90" vaporized=""/>
    <tripinfo id="25_1_2" depart="25852.00" departLane="500021865_0" departPos="5.10" departSpeed="0.00" departDelay="0.00" arrival="25859.00" arrivalLane="500021865_0" arrivalPos="49.18" arrivalSpeed="13.38" duration="7.00" routeLength="44.08" waitingTime="0.00" waitingCount="0" stopTime="0.00" timeLoss="3.55" rerouteNo="1" devices="vehroute_25_1_2 tripinfo_25_1_2 routing_25_1_2" vType="DEFAULT_VEHTYPE" speedFactor="1.03" vaporized=""/>
    <tripinfo id="3_2_0" depart="39609.00" departLane="gneE507_1" departPos="5.10" departSpeed="0.00" departDelay="0.00" arrival="39614.00" arrivalLane="gneE507_1" arrivalPos="29.71" arrivalSpeed="11.24" duration="5.00" routeLength="24.61" waitingTime="0.00" waitingCount="0" stopTime="0.00" timeLoss="2.76" rerouteNo="1" devices="vehroute_3_2_0 tripinfo_3_2_0 routing_3_2_0" vType="DEFAULT_VEHTYPE" speedFactor="1.09" vaporized=""/>
    <tripinfo id="5_2_0" depart="39608.00" departLane="158612540#1_0" departPos="5.10" departSpeed="0.00" departDelay="0.00" arrival="39619.00" arrivalLane="158612540#1_0" arrivalPos="61.16" arrivalSpeed="6.37" duration="11.00" routeLength="56.06" waitingTime="0.00" waitingCount="0" stopTime="0.00" timeLoss="1.69" rerouteNo="1" devices="vehroute_5_2_0 tripinfo_5_2_0 routing_5_2_0" vType="DEFAULT_VEHTYPE" speedFactor="0.96" vaporized=""/>
    <tripinfo id="3_2_1" depart="39613.00" departLane="5130429_0" departPos="5.10" departSpeed="0.00" departDelay="0.00" arrival="39624.00" arrivalLane="5130429_0" arrivalPos="111.52" arrivalSpeed="21.46" duration="11.00" routeLength="106.42" waitingTime="0.00" waitingCount="0" stopTime="0.00" timeLoss="6.46" rerouteNo="1" devices="vehroute_3_2_1 tripinfo_3_2_1 routing_3_2_1" vType="DEFAULT_VEHTYPE" speedFactor="1.04" vaporized=""/>
    <tripinfo id="5_2_1" depart="39631.00" departLane="621342731_0" departPos="5.10" departSpeed="0.00" departDelay="0.00" arrival="39650.00" arrivalLane="621342731_0" arrivalPos="302.63" arrivalSpeed="22.31" duration="19.00" routeLength="297.53" waitingTime="0.00" waitingCount="0" stopTime="0.00" timeLoss="5.77" rerouteNo="1" devices="vehroute_5_2_1 tripinfo_5_2_1 routing_5_2_1" vType="DEFAULT_VEHTYPE" speedFactor="1.04" vaporized=""/>
    <tripinfo id="25_2_0" depart="39807.00" departLane="171121248_0" departPos="5.10" departSpeed="0.00" departDelay="0.00" arrival="39824.00" arrivalLane="171121248_0" arrivalPos="275.71" arrivalSpeed="23.56" duration="17.00" routeLength="270.61" waitingTime="0.00" waitingCount="0" stopTime="0.00" timeLoss="5.56" rerouteNo="1" devices="vehroute_25_2_0 tripinfo_25_2_0 routing_25_2_0" vType="DEFAULT_VEHTYPE" speedFactor="1.09" vaporized=""/>
    <tripinfo id="23_2_0" depart="39819.00" departLane="4749006_0" departPos="5.10" departSpeed="0.00" departDelay="0.00" arrival="39850.00" arrivalLane="4749006_0" arrivalPos="461.10" arrivalSpeed="17.71" duration="31.00" routeLength="456.00" waitingTime="0.00" waitingCount="0" stopTime="0.00" timeLoss="4.77" rerouteNo="1" devices="vehroute_23_2_0 tripinfo_23_2_0 routing_23_2_0" vType="DEFAULT_VEHTYPE" speedFactor="1.00" vaporized=""/>
    <tripinfo id="13_2_0" depart="39839.00" departLane="4729558_0" departPos="5.10" departSpeed="0.00" departDelay="0.00" arrival="39852.00" arrivalLane="4729558_0" arrivalPos="102.52" arrivalSpeed="10.01" duration="13.00" routeLength="97.42" waitingTime="0.00" waitingCount="0" stopTime="0.00" timeLoss="2.99" rerouteNo="1" devices="vehroute_13_2_0 tripinfo_13_2_0 routing_13_2_0" vType="DEFAULT_VEHTYPE" speedFactor="0.90" vaporized=""/>
    <tripinfo id="25_2_1" depart="39841.00" departLane="5130429_0" departPos="5.10" departSpeed="0.00" departDelay="0.00" arrival="39852.00" arrivalLane="5130429_0" arrivalPos="111.52" arrivalSpeed="21.03" duration="11.00" routeLength="106.42" waitingTime="0.00" waitingCount="0" stopTime="0.00" timeLoss="5.65" rerouteNo="1" devices="vehroute_25_2_1 tripinfo_25_2_1 routing_25_2_1" vType="DEFAULT_VEHTYPE" speedFactor="0.88" vaporized=""/>
    <tripinfo id="23_2_1" depart="39845.00" departLane="4910876_0" departPos="5.10" departSpeed="0.00" departDelay="0.00" arrival="39859.00" arrivalLane="4910876_0" arrivalPos="163.96" arrivalSpeed="17.61" duration="14.00" routeLength="158.86" waitingTime="0.00" waitingCount="0" stopTime="0.00" timeLoss="5.10" rerouteNo="1" devices="vehroute_23_2_1 tripinfo_23_2_1 routing_23_2_1" vType="DEFAULT_VEHTYPE" speedFactor="0.85" vaporized=""/>
    <tripinfo id="25_2_2" depart="39848.00" departLane="169734863#0_0" departPos="5.10" departSpeed="0.00" departDelay="0.00" arrival="39860.00" arrivalLane="169734863#0_0" arrivalPos="57.51" arrivalSpeed="5.44" duration="12.00" routeLength="52.41" waitingTime="0.00" waitingCount="0" stopTime="0.00" timeLoss="1.99" rerouteNo="1" devices="vehroute_25_2_2 tripinfo_25_2_2 routing_25_2_2" vType="DEFAULT_VEHTYPE" speedFactor="0.85" vaporized=""/>
    <tripinfo id="13_2_1" depart="39855.00" departLane="4712862_0" departPos="5.10" departSpeed="0.00" departDelay="0.00" arrival="39889.00" arrivalLane="4712862_0" arrivalPos="464.40" arrivalSpeed="15.33" duration="34.00" routeLength="459.30" waitingTime="0.00" waitingCount="0" stopTime="0.00" timeLoss="4.29" rerouteNo="1" devices="vehroute_13_2_1 tripinfo_13_2_1 routing_13_2_1" vType="DEFAULT_VEHTYPE" speedFactor="1.17" vaporized=""/>
    <tripinfo id="23_2_2" depart="39890.00" departLane="171121248_0" departPos="5.10" departSpeed="0.00" departDelay="0.00" arrival="39908.00" arrivalLane="171121248_0" arrivalPos="275.71" arrivalSpeed="22.28" duration="18.00" routeLength="270.61" waitingTime="0.00" waitingCount="0" stopTime="0.00" timeLoss="5.95" rerouteNo="1" devices="vehroute_23_2_2 tripinfo_23_2_2 routing_23_2_2" vType="DEFAULT_VEHTYPE" speedFactor="1.02" vaporized=""/>
    <tripinfo id="23_2_4" depart="39905.00" departLane="486260018_0" departPos="5.10" departSpeed="0.00" departDelay="0.00" arrival="39914.00" arrivalLane="486260018_0" arrivalPos="86.97" arrivalSpeed="17.45" duration="9.00" routeLength="81.87" waitingTime="0.00" waitingCount="0" stopTime="0.00" timeLoss="5.52" rerouteNo="1" devices="vehroute_23_2_4 tripinfo_23_2_4 routing_23_2_4" vType="DEFAULT_VEHTYPE" speedFactor="1.00" vaporized=""/>
    <tripinfo id="23_2_3" depart="39898.00" departLane="124272636_0" departPos="5.10" departSpeed="0.00" departDelay="0.00" arrival="39925.00" arrivalLane="124272636_0" arrivalPos="570.26" arrivalSpeed="28.33" duration="27.00" routeLength="565.16" waitingTime="0.00" waitingCount="0" stopTime="0.00" timeLoss="7.59" rerouteNo="1" devices="vehroute_23_2_3 tripinfo_23_2_3 routing_23_2_3" vType="DEFAULT_VEHTYPE" speedFactor="1.10" vaporized=""/>
    <tripinfo id="19_2_0" depart="39963.00" departLane="672365867_0" departPos="0.20" departSpeed="0.00" departDelay="0.00" arrival="39964.00" arrivalLane="672365867_0" arrivalPos="0.20" arrivalSpeed="2.13" duration="1.00" routeLength="0.00" waitingTime="0.00" waitingCount="0" stopTime="0.00" timeLoss="0.89" rerouteNo="1" devices="vehroute_19_2_0 tripinfo_19_2_0 routing_19_2_0" vType="DEFAULT_VEHTYPE" speedFactor="0.90" vaporized=""/>
    <tripinfo id="20_2_0" depart="39960.00" departLane="4749006_0" departPos="5.10" departSpeed="0.00" departDelay="0.00" arrival="39991.00" arrivalLane="4749006_0" arrivalPos="461.10" arrivalSpeed="17.21" duration="31.00" routeLength="456.00" waitingTime="0.00" waitingCount="0" stopTime="0.00" timeLoss="4.78" rerouteNo="1" devices="vehroute_20_2_0 tripinfo_20_2_0 routing_20_2_0" vType="DEFAULT_VEHTYPE" speedFactor="1.00" vaporized=""/>
    <tripinfo id="20_2_1" depart="39986.00" departLane="4910876_0" departPos="5.10" departSpeed="0.00" departDelay="0.00" arrival="39999.00" arrivalLane="4910876_0" arrivalPos="163.96" arrivalSpeed="24.18" duration="13.00" routeLength="158.86" waitingTime="0.00" waitingCount="0" stopTime="0.00" timeLoss="5.99" rerouteNo="1" devices="vehroute_20_2_1 tripinfo_20_2_1 routing_20_2_1" vType="DEFAULT_VEHTYPE" speedFactor="1.14" vaporized=""/>
    <tripinfo id="28_2_0" depart="39991.00" departLane="171121248_0" departPos="5.10" departSpeed="0.00" departDelay="0.00" arrival="40009.00" arrivalLane="171121248_0" arrivalPos="275.71" arrivalSpeed="21.48" duration="18.00" routeLength="270.61" waitingTime="0.00" waitingCount="0" stopTime="0.00" timeLoss="5.40" rerouteNo="1" devices="vehroute_28_2_0 tripinfo_28_2_0 routing_28_2_0" vType="DEFAULT_VEHTYPE" speedFactor="1.02" vaporized=""/>
    <tripinfo id="24_2_0" depart="39999.00" departLane="4729558_0" departPos="5.10" departSpeed="0.00" departDelay="0.00" arrival="40011.00" arrivalLane="4729558_0" arrivalPos="102.52" arrivalSpeed="9.62" duration="12.00" routeLength="97.42" waitingTime="0.00" waitingCount="0" stopTime="0.00" timeLoss="2.60" rerouteNo="1" devices="vehroute_24_2_0 tripinfo_24_2_0 routing_24_2_0" vType="DEFAULT_VEHTYPE" speedFactor="0.97" vaporized=""/>
    <tripinfo id="24_2_1" depart="40008.00" departLane="38008151_0" departPos="5.10" departSpeed="0.00" departDelay="0.00" arrival="40025.00" arrivalLane="38008152_2" arrivalPos="40.89" arrivalSpeed="29.01" duration="17.00" routeLength="283.78" waitingTime="0.00" waitingCount="0" stopTime="0.00" timeLoss="6.65" rerouteNo="1" devices="vehroute_24_2_1 tripinfo_24_2_1 routing_24_2_1" vType="DEFAULT_VEHTYPE" speedFactor="1.08" vaporized=""/>
    <tripinfo id="28_2_1" depart="40025.00" departLane="5130429_0" departPos="5.10" departSpeed="0.00" departDelay="0.00" arrival="40035.00" arrivalLane="5130429_0" arrivalPos="111.52" arrivalSpeed="21.14" duration="10.00" routeLength="106.42" waitingTime="0.00" waitingCount="0" stopTime="0.00" timeLoss="6.09" rerouteNo="1" devices="vehroute_28_2_1 tripinfo_28_2_1 routing_28_2_1" vType="DEFAULT_VEHTYPE" speedFactor="1.12" vaporized=""/>
    <tripinfo id="28_2_2" depart="40032.00" departLane="169734863#0_0" departPos="5.10" departSpeed="0.00" departDelay="0.00" arrival="40042.00" arrivalLane="169734863#0_0" arrivalPos="57.51" arrivalSpeed="5.47" duration="10.00" routeLength="52.41" waitingTime="0.00" waitingCount="0" stopTime="0.00" timeLoss="1.71" rerouteNo="1" devices="vehroute_28_2_2 tripinfo_28_2_2 routing_28_2_2" vType="DEFAULT_VEHTYPE" speedFactor="0.99" vaporized=""/>
    <tripinfo id="20_2_2" depart="40031.00" departLane="171121248_0" departPos="5.10" departSpeed="0.00" departDelay="0.00" arrival="40049.00" arrivalLane="171121248_0" arrivalPos="275.71" arrivalSpeed="22.10" duration="18.00" routeLength="270.61" waitingTime="0.00" waitingCount="0" stopTime="0.00" timeLoss="5.18" rerouteNo="1" devices="vehroute_20_2_2 tripinfo_20_2_2 routing_20_2_2" vType="DEFAULT_VEHTYPE" speedFactor="1.02" vaporized=""/>